# vtk DataFile Version 2.0
Pressure Field Data 
ASCII 
DATASET UNSTRUCTURED_GRID 

POINTS 250 float 

    0.0000000000000000E+00     0.0000000000000000E+00     0.0000000000000000E+00 
    1.0000000000000000E+00     0.0000000000000000E+00     0.0000000000000000E+00 
    1.0000000000000000E+00     1.0000000000000000E+00     0.0000000000000000E+00 
    0.0000000000000000E+00     1.0000000000000000E+00     0.0000000000000000E+00 
    0.0000000000000000E+00     0.0000000000000000E+00     1.0000000000000000E+00 
    1.0000000000000000E+00     0.0000000000000000E+00     1.0000000000000000E+00 
    1.0000000000000000E+00     1.0000000000000000E+00     1.0000000000000000E+00 
    0.0000000000000000E+00     1.0000000000000000E+00     1.0000000000000000E+00 
    4.0000000000000002E-01     4.0000000000000002E-01     4.0000000000000002E-01 
    5.9999999999999998E-01     4.0000000000000002E-01     4.0000000000000002E-01 
    5.9999999999999998E-01     5.9999999999999998E-01     4.0000000000000002E-01 
    4.0000000000000002E-01     5.9999999999999998E-01     4.0000000000000002E-01 
    4.0000000000000002E-01     4.0000000000000002E-01     5.9999999999999998E-01 
    5.9999999999999998E-01     4.0000000000000002E-01     5.9999999999999998E-01 
    5.9999999999999998E-01     5.9999999999999998E-01     5.9999999999999998E-01 
    4.0000000000000002E-01     5.9999999999999998E-01     5.9999999999999998E-01 
    1.9999999999955739E-01     0.0000000000000000E+00     1.0000000000000000E+00 
    3.9999999999897440E-01     0.0000000000000000E+00     1.0000000000000000E+00 
    5.9999999999894582E-01     0.0000000000000000E+00     1.0000000000000000E+00 
    7.9999999999947213E-01     0.0000000000000000E+00     1.0000000000000000E+00 
    1.0000000000000000E+00     0.0000000000000000E+00     7.9999999999999993E-01 
    1.0000000000000000E+00     0.0000000000000000E+00     6.0000000000138765E-01 
    1.0000000000000000E+00     0.0000000000000000E+00     4.0000000000166580E-01 
    1.0000000000000000E+00     0.0000000000000000E+00     2.0000000000083359E-01 
    7.9999999999999993E-01     0.0000000000000000E+00     0.0000000000000000E+00 
    6.0000000000138765E-01     0.0000000000000000E+00     0.0000000000000000E+00 
    4.0000000000166580E-01     0.0000000000000000E+00     0.0000000000000000E+00 
    2.0000000000083359E-01     0.0000000000000000E+00     0.0000000000000000E+00 
    0.0000000000000000E+00     0.0000000000000000E+00     1.9999999999955739E-01 
    0.0000000000000000E+00     0.0000000000000000E+00     3.9999999999897440E-01 
    0.0000000000000000E+00     0.0000000000000000E+00     5.9999999999894582E-01 
    0.0000000000000000E+00     0.0000000000000000E+00     7.9999999999947213E-01 
    1.9999999999955739E-01     1.0000000000000000E+00     1.0000000000000000E+00 
    3.9999999999897440E-01     1.0000000000000000E+00     1.0000000000000000E+00 
    5.9999999999894582E-01     1.0000000000000000E+00     1.0000000000000000E+00 
    7.9999999999947213E-01     1.0000000000000000E+00     1.0000000000000000E+00 
    1.0000000000000000E+00     1.0000000000000000E+00     7.9999999999999993E-01 
    1.0000000000000000E+00     1.0000000000000000E+00     6.0000000000138765E-01 
    1.0000000000000000E+00     1.0000000000000000E+00     4.0000000000166580E-01 
    1.0000000000000000E+00     1.0000000000000000E+00     2.0000000000083359E-01 
    7.9999999999999993E-01     1.0000000000000000E+00     0.0000000000000000E+00 
    6.0000000000138765E-01     1.0000000000000000E+00     0.0000000000000000E+00 
    4.0000000000166580E-01     1.0000000000000000E+00     0.0000000000000000E+00 
    2.0000000000083359E-01     1.0000000000000000E+00     0.0000000000000000E+00 
    0.0000000000000000E+00     1.0000000000000000E+00     1.9999999999955739E-01 
    0.0000000000000000E+00     1.0000000000000000E+00     3.9999999999897440E-01 
    0.0000000000000000E+00     1.0000000000000000E+00     5.9999999999894582E-01 
    0.0000000000000000E+00     1.0000000000000000E+00     7.9999999999947213E-01 
    0.0000000000000000E+00     7.9999999999999993E-01     1.0000000000000000E+00 
    0.0000000000000000E+00     6.0000000000138765E-01     1.0000000000000000E+00 
    0.0000000000000000E+00     4.0000000000166580E-01     1.0000000000000000E+00 
    0.0000000000000000E+00     2.0000000000083359E-01     1.0000000000000000E+00 
    1.0000000000000000E+00     7.9999999999999993E-01     1.0000000000000000E+00 
    1.0000000000000000E+00     6.0000000000138765E-01     1.0000000000000000E+00 
    1.0000000000000000E+00     4.0000000000166580E-01     1.0000000000000000E+00 
    1.0000000000000000E+00     2.0000000000083359E-01     1.0000000000000000E+00 
    1.0000000000000000E+00     7.9999999999999993E-01     0.0000000000000000E+00 
    1.0000000000000000E+00     6.0000000000138765E-01     0.0000000000000000E+00 
    1.0000000000000000E+00     4.0000000000166580E-01     0.0000000000000000E+00 
    1.0000000000000000E+00     2.0000000000083359E-01     0.0000000000000000E+00 
    0.0000000000000000E+00     7.9999999999999993E-01     0.0000000000000000E+00 
    0.0000000000000000E+00     6.0000000000138765E-01     0.0000000000000000E+00 
    0.0000000000000000E+00     4.0000000000166580E-01     0.0000000000000000E+00 
    0.0000000000000000E+00     2.0000000000083359E-01     0.0000000000000000E+00 
    4.9999999999996442E-01     0.0000000000000000E+00     5.0000000000010736E-01 
    7.1250000000009284E-01     0.0000000000000000E+00     7.1249999999986191E-01 
    7.1249999999974079E-01     0.0000000000000000E+00     2.8749999999989451E-01 
    2.8750000000018572E-01     0.0000000000000000E+00     7.1250000000023894E-01 
    2.8749999999974851E-01     0.0000000000000000E+00     2.8750000000030679E-01 
    7.9606445312494822E-01     0.0000000000000000E+00     4.8967391304401858E-01 
    4.8967391304396268E-01     0.0000000000000000E+00     2.0393554687507870E-01 
    5.1032608695614678E-01     0.0000000000000000E+00     7.9606445312504159E-01 
    2.0393554687498541E-01     0.0000000000000000E+00     5.1032608695620263E-01 
    8.3291666666663189E-01     0.0000000000000000E+00     8.3291666666671871E-01 
    8.3291666666672248E-01     0.0000000000000000E+00     1.6708333333341471E-01 
    1.6708333333323261E-01     0.0000000000000000E+00     8.3291666666660769E-01 
    1.6708333333343889E-01     0.0000000000000000E+00     1.6708333333322889E-01 
    6.3165665125519699E-01     0.0000000000000000E+00     5.6965568849252457E-01 
    5.6896597168299201E-01     0.0000000000000000E+00     3.6854769226137202E-01 
    4.2447083169542138E-01     0.0000000000000000E+00     6.1679537583995325E-01 
    3.8304704250166921E-01     0.0000000000000000E+00     4.2457633889550911E-01 
    8.6749953497022769E-01     0.0000000000000000E+00     3.1206279114966118E-01 
    3.1206279114965690E-01     0.0000000000000000E+00     1.3250046502979620E-01 
    6.8793720885056442E-01     0.0000000000000000E+00     8.6749953497025389E-01 
    1.3250046502977009E-01     0.0000000000000000E+00     6.8793720885056875E-01 
    8.6829622395833472E-01     0.0000000000000000E+00     6.8701811594239726E-01 
    6.8701811594236273E-01     0.0000000000000000E+00     1.3170377604167760E-01 
    3.1298188405761940E-01     0.0000000000000000E+00     8.6829622395837769E-01 
    1.3170377604163461E-01     0.0000000000000000E+00     3.1298188405765398E-01 
    1.0000000000000000E+00     5.0000000000028766E-01     5.0000000000088540E-01 
    1.0000000000000000E+00     7.1250000000081104E-01     7.1250000000081104E-01 
    1.0000000000000000E+00     2.8749999999986320E-01     7.1249999999977209E-01 
    1.0000000000000000E+00     7.1249999999977209E-01     2.8749999999986320E-01 
    1.0000000000000000E+00     2.8750000000090220E-01     2.8750000000090220E-01 
    1.0000000000000000E+00     7.9606445312519625E-01     4.8967391304441510E-01 
    1.0000000000000000E+00     5.1032608695719262E-01     7.9606445312534568E-01 
    1.0000000000000000E+00     2.0393554687522869E-01     5.1032608695734205E-01 
    1.0000000000000000E+00     4.8967391304426572E-01     2.0393554687537821E-01 
    1.0000000000000000E+00     8.3553782567496571E-01     8.3553782567496571E-01 
    1.0000000000000000E+00     8.3291666666674258E-01     1.6708333333339459E-01 
    1.0000000000000000E+00     1.6708333333339459E-01     8.3291666666674258E-01 
    1.0000000000000000E+00     1.6446217432602339E-01     1.6446217432602339E-01 
    1.0000000000000000E+00     3.6834334874550889E-01     4.3034431150874841E-01 
    1.0000000000000000E+00     5.7552916830465295E-01     3.8320462416070489E-01 
    1.0000000000000000E+00     4.3103402831680038E-01     6.3145230773914995E-01 
    1.0000000000000000E+00     6.1695295749889989E-01     5.7542366110566801E-01 
    1.0000000000000000E+00     8.6749953497027721E-01     3.1206279114970270E-01 
    1.0000000000000000E+00     3.1298188405859001E-01     8.6829622395837214E-01 
    1.0000000000000000E+00     1.3117954424043091E-01     3.1245765225735339E-01 
    1.0000000000000000E+00     3.0832721747473812E-01     1.3117954424046069E-01 
    1.0000000000000000E+00     8.6882045576019462E-01     6.8754234774431588E-01 
    1.0000000000000000E+00     6.9167278252687148E-01     8.6882045576022437E-01 
    1.0000000000000000E+00     6.8701811594243356E-01     1.3170377604172720E-01 
    1.0000000000000000E+00     1.3250046502981480E-01     6.8793720885135601E-01 
    5.0000000000088540E-01     5.0000000000028766E-01     0.0000000000000000E+00 
    7.1250000000081104E-01     7.1250000000081104E-01     0.0000000000000000E+00 
    7.1249999999977209E-01     2.8749999999986320E-01     0.0000000000000000E+00 
    2.8749999999986320E-01     7.1249999999977209E-01     0.0000000000000000E+00 
    2.8750000000090220E-01     2.8750000000090220E-01     0.0000000000000000E+00 
    4.8967391304441510E-01     7.9606445312519625E-01     0.0000000000000000E+00 
[...]
CELL_DATA 760 
SCALARS Pressure float 1 
LOOKUP_TABLE default 

    1.6812397194045487E+00 
    1.7087581458269840E+00 
    1.1791636421664089E+00 
    1.8113012338143903E+00 
    1.6643075720008449E+00 
    1.6771271251337652E+00 
    1.1954918368684482E+00 
    1.2252857934433281E+00 
    1.8183972665200627E+00 
    1.1069346682265306E+00 
    1.3173634807416579E+00 
    6.9973634236701432E-01 
    1.0540690615643493E+00 
    1.5496971933080932E+00 
    1.1600120299384253E+00 
    1.0266081712823469E+00 
    7.4915198116306403E-01 
    1.4093297220437886E+00 
    1.0742290488378852E+00 
    1.2215371664197006E+00 
    1.9882776120559746E+00 
    1.1461721506209630E+00 
    9.6294492397220965E-01 
    1.0650035483481313E+00 
    1.9197842483375309E+00 
    1.1598656458519896E+00 
    1.0443169347198136E+00 
    9.9883562524541580E-01 
    1.9515369427381388E+00 
    1.3664906681290485E+00 
    1.1763095974570901E+00 
    1.1800112030991876E+00 
    1.1348784725311474E+00 
    5.4335532995591174E-01 
    1.3283261821637089E+00 
    1.0384302838802442E+00 
    1.9304318999155747E+00 
    1.6670854360933547E+00 
    1.8167403531849586E+00 
    1.2379328459856500E+00 
    1.0497938816054235E+00 
    2.2166984779764873E+00 
    1.6001696279693305E+00 
    1.4912542850460444E+00 
    1.3603182861707241E+00 
    1.1163726573680610E+00 
    1.1748716643446941E+00 
    1.3913886786338552E+00 
    1.2590848648464643E+00 
    1.2116813709613357E+00 
    1.3892924184797142E+00 
    1.4371896501146684E+00 
    1.1346313528389882E+00 
    9.7999346062854442E-01 
    1.8357073240773296E+00 
    1.4626399725721004E+00 
    1.3611411016296369E+00 
    8.6078032129890403E-01 
    1.5544774115448881E+00 
    1.1544919773789513E+00 
    6.2350874584507632E-01 
    1.3434993119134913E+00 
    1.3010727581548356E+00 
    5.4312316597527766E-01 
    1.6633567551606052E+00 
    2.3903679281574095E+00 
    1.3516703759659536E+00 
    1.1634450684637949E+00 
    1.4475352582178069E+00 
    2.3834231772518728E+00 
    1.4810144214799190E+00 
    1.6343086619727076E+00 
    1.0984840092176180E+00 
    1.2125971571685243E+00 
    1.5761634867958796E+00 
    1.3806296077856381E+00 
    9.8197756310755491E-01 
    1.3116851231332440E+00 
    1.6650493014289545E+00 
    1.6239666317364014E+00 
    1.1878393411728065E+00 
    9.8764242747572795E-01 
    1.5903598923226758E+00 
    1.7288159731185042E+00 
    2.0189067311206434E+00 
    1.3911342349373508E+00 
    1.1841195802865863E+00 
    1.7105197500434444E+00 
    1.6145692797066766E+00 
    1.7942883834080179E+00 
    2.0626770261039211E+00 
    1.7450689822234300E+00 
    1.3122086765823346E+00 
    1.3545777077984851E+00 
    7.2428999968791441E-01 
    1.4720542791450808E+00 
    1.4742646462842319E+00 
    1.7445495191355871E+00 
    1.9985355184894047E+00 
    1.2001029286178422E+00 
    1.3584260589998327E+00 
    1.1752157117682451E+00 
    1.1160823480870952E+00 
    1.7733463390475126E+00 
    1.0075391973739689E+00 
    1.2738570300311183E+00 
    1.5033136454765124E+00 
    9.4234188489151982E-01 
    1.4646498444962146E+00 
    1.2669112631155861E+00 
    1.2895573508322622E+00 
    1.7470929277004443E+00 
    1.1721181685792139E+00 
    1.1335257772739005E+00 
    1.3753434510473150E+00 
    2.5284854794883760E+00 
    1.4264158651318126E+00 
    1.3396282714108843E+00 
    1.6794402133198525E+00 
    1.5620586036498141E+00 
    1.0435155611684193E+00 
    1.1954373334500366E+00 
    1.0875366257016237E+00 
    1.6111720281716153E+00 
    1.2929022979792231E+00 
    1.2141433420105738E+00 
    1.8893258795157335E+00 
    1.8282947884406133E+00 
    1.3049734929289010E+00 
    1.5299264520637641E+00 
    7.9215610090175215E-01 
    8.2072498995548770E-01 
    1.2670393154697832E+00 
    1.3679264765037904E+00 
    0.0000000000000000E+00 
    0.0000000000000000E+00 
    1.3311610509094223E+00 
    1.2059909924867875E+00 
    1.1098239763812372E+00 
    2.4732370126208245E+00 
    6.5903963329933135E-01 
    1.1648795810337174E+00 
    1.0514781202320438E+00 
    1.3762308477123681E+00 
    9.4164146162705920E-01 
    1.1843385104688797E+00 
    1.2026022578059881E+00 
    1.5570307236272438E+00 
    1.5388747731876131E+00 
    1.7306204325137557E+00 
    1.9701564415129627E+00 
    1.3313356370454503E+00 
    1.4274402424500632E+00 
    6.9621451713331406E-01 
    2.4665246777853431E+00 
    1.1558879980614927E+00 
    9.7062965135893986E-01 
    1.6283404023709580E+00 
    1.7965951492136671E+00 
    0.0000000000000000E+00 
    8.2291836953504882E-01 
    9.7662988728854450E-01 
    2.0506213766827579E+00 
    1.3415028502518060E+00 
    8.3305670914246299E-01 
    1.2883004504092084E+00 
    1.4578282328775538E+00 
    0.0000000000000000E+00 
    2.0189169933610578E+00 
    2.0526374566102970E+00 
    1.0153226142773852E+00 
    1.8211484914441327E+00 
    1.8892314770578413E+00 
    1.5267263864356659E+00 
    1.6339154902721955E+00 
    1.6744094928318278E+00 
    1.1353317436540280E+00 
    1.3854762331866000E+00 
    9.6466704973084272E-01 
    1.3101106107530269E+00 
    1.2548503383064804E+00 
    1.5335998850971517E+00 
    1.4582257480065006E+00 
    1.7641573464178693E+00 
    1.2865125364449785E+00 
    1.6247222196873421E+00 
    5.6215333147413526E-01 
    1.8848213107049048E+00 
    1.4976454402151724E+00 
    1.2631418379660060E+00 
    2.4982290043507436E+00 
    2.2976276192838516E+00 
    2.0180468898741077E+00 
    1.8124312384623931E+00 
    8.5930497222955049E-01 
    8.7511426047071927E-01 
    1.4359997365350297E+00 
    1.0000000000000000E+00 
    1.1033187838715415E+00 
    1.5293663032878955E+00 
    2.5069930466415324E+00 
    1.8364689305275979E+00 
    1.1466987582950166E+00 
    1.8043558832198674E+00 
    2.0100319325214975E+00 
    1.1566451880365529E+00 
    1.1158469726442193E+00 
    1.7335738544955257E+00 
    9.6147789903016589E-01 
    1.5942538349614410E+00 
    9.7964276208321244E-01 
    9.1638020622079674E-01 
    1.6567351747569126E+00 
    8.8867116047684203E-01 
    1.4652614496705163E+00 
    1.8623405192267108E+00 
    1.2214410861810634E+00 
    1.2239944933141429E+00 
    1.7856465764562588E+00 
    1.0863373680130013E+00 
    1.9666206738303349E+00 
    2.4799983056793091E+00 
    1.2951715148446412E+00 
    7.7533625829111985E-01 
    1.5427287140492629E+00 
    1.2376880184452295E+00 
    1.8467214056230015E+00 
    5.5604316675326282E-01 
    1.7412246455921507E+00 
    1.5393696666797765E+00 
    1.0998941851556505E+00 
    1.5247820539272756E+00 
    1.8656350219571882E+00 
    1.1573543337405805E+00 
    1.4769882720499599E+00 
    1.6909164094284403E+00 
    1.2166679847453756E+00 
    2.0147830937369458E+00 
    1.2200058805065357E+00 
    8.7652475773594751E-01 
    9.3489634611680272E-01 
    1.8458925522746554E+00 
    9.3724179263128538E-01 
    2.1616021587778849E+00 
    1.6968791585903134E+00 
    1.3309087879276289E+00 
    1.0000000000000000E+00 
    1.0669873887112036E+00 
    1.8551004284744896E+00 
    9.1763433876481026E-01 
    2.3321797946056084E+00 
    1.4171913564226799E+00 
    1.5687678226209554E+00 
    7.4789504529242146E-01 
    2.0125539688282745E+00 
    1.4268506133227989E+00 
    1.6410685877501794E+00 
    5.5398827222689651E-01 
    1.9176435349902472E+00 
    2.4586655587271413E+00 
    8.2754233226069629E-01 
    1.2636253571338214E+00 
    7.9246803425872114E-01 
    1.6205212884267126E+00 
    1.1517190279927878E+00 
    1.3934072574720555E+00 
    1.7189418025572685E+00 
    2.4653079322770628E+00 
    1.4066229172978786E+00 
    7.1300966963187085E-01 
    1.0966663304010014E+00 
    9.4463723829045931E-01 
    9.9318089717194580E-01 
    2.5062733499420045E+00 
    2.1136777676990874E+00 
    1.5884741143357175E+00 
    1.8493353280869200E+00 
    1.5230423772017572E+00 
    2.3392492318055194E+00 
    2.1304371129829196E+00 
    1.2813452891768393E+00 
    1.8101407982624573E+00 
    1.5272728303421061E+00 
    2.2507228992619379E+00 
    1.5551074309581265E+00 
    1.4240072609329786E+00 
    1.1086148584716566E+00 
    1.4315441522066279E+00 
    1.8645369145315489E+00 
    1.4700843171793634E+00 
    9.6124000486628058E-01 
    1.0209987034454191E+00 
    1.1850115916480990E+00 
    1.0148774966910601E+00 
    1.7422866896832250E+00 
    1.8515000213717219E+00 
    8.5007255331573928E-01 
    6.1582867597786262E-01 
    1.5683539705321867E+00 
    9.6232983993579113E-01 
    5.0204265509333235E-01 
    1.6855130335270347E+00 
    1.3374842812672258E+00 
    8.6624683108534417E-01 
    2.4307121492275576E+00 
    1.1993474683997936E+00 
    1.2159663265127310E+00 
    1.7094504927978931E+00 
    1.4938400835423129E+00 
    1.5713611920033994E+00 
    1.6312792872981914E+00 
    1.7677258965279354E+00 
    2.1894525847080226E+00 
    1.0272373730638140E+00 
    8.8501114993013641E-01 
    1.6066374749089638E+00 
    2.0091177311062074E+00 
    1.4101308621178879E+00 
    2.4394394076075128E+00 
    1.3832726366414949E+00 
    1.1198859800050525E+00 
    1.5182774278300808E+00 
    4.9885827072611555E-01 
    1.1140654143069155E+00 
    2.4406965747701594E+00 
    1.8657188018966959E+00 
    1.6715295177294842E+00 
    1.4290241858885646E+00 
    2.3880397644954527E+00 
    9.2481171907659254E-01 
    1.1451662461897005E+00 
    9.5570998099095206E-01 
    1.7310958062200170E+00 
    1.3567958951905537E+00 
    1.9985017183218019E+00 
    1.1730543942777947E+00 
    9.8063336953708935E-01 
    1.0633388884029793E+00 
    1.8868798107378104E+00 
    1.9265226129974500E+00 
    1.0292457596299360E+00 
    1.8966256846828558E+00 
    1.1736857033315169E+00 
    1.6322537377222566E+00 
    5.3565328048926919E-01 
    2.0764977760776611E+00 
    2.0022725564792312E+00 
    2.0136380014468540E+00 
    1.3020012173601596E+00 
    2.4720805341822207E+00 
    2.1928910837452844E+00 
    1.1373465963795610E+00 
    2.0294419202415610E+00 
    1.5341009256626481E+00 
    1.5614487007066127E+00 
    2.4476177541329944E+00 
    9.7848410181081169E-01 
    1.5691923892953299E+00 
    1.8873381081510039E+00 
    2.0417216971184429E+00 
    1.0051398121107320E+00 
    1.2742935527222368E+00 
    2.3911931934827977E+00 
    8.6463542772481627E-01 
    1.3177315368084259E+00 
    2.2582223949984148E+00 
    1.7998584311102321E+00 
    1.1892947729119248E+00 
    1.8685236428189445E+00 
    1.1371724415667324E+00 
    1.4305958439854654E+00 
    1.7099365039167254E+00 
    1.6606041200319261E+00 
    7.3390119976104828E-01 
    1.2384532727646105E+00 
    1.7321186652116916E+00 
    1.3217895623497049E+00 
    6.9028843651491067E-01 
    1.4377765183613718E+00 
    2.1174813875639487E+00 
    1.5536993632855771E+00 
    1.4194027537679921E+00 
    1.2758242876390813E+00 
    2.1575490781933242E+00 
    1.5585248429863965E+00 
    1.3728608405704124E+00 
    1.0000000000000000E+00 
    7.1765803526295802E-01 
    2.4007509912743124E+00 
    1.3850490214986260E+00 
    7.9674546227427723E-01 
    1.5440615379896059E+00 
    1.8190689341579942E+00 
    1.5522739517702062E+00 
    1.8443419455608392E+00 
    1.8327831671169075E+00 
    1.4243920205884242E+00 
    1.6835356583424115E+00 
    1.5157346031728893E+00 
    9.6072368123267249E-01 
    2.4026687547264656E+00 
    8.6852188888234894E-01 
    1.6127459854059605E+00 
    1.8446156244086516E+00 
    1.5510769930364170E+00 
    2.1242018456663598E+00 
    2.0363225555646931E+00 
    1.2231281961234910E+00 
    1.7458091645456426E+00 
    1.5759516259738584E+00 
    6.7555032948703386E-01 
    1.4897274392583646E+00 
    5.6617389762504056E-01 
    7.3666485983310559E-01 
    2.2097718974163865E+00 
    2.2698997764564113E+00 
    1.1230906484013414E+00 
    2.2015779695898545E+00 
    2.0045923187848622E+00 
    2.0161637248076869E+00 
    1.3635863185456059E+00 
    1.7257562682031165E+00 
    1.3113874434769903E+00 
    2.3053713170400374E+00 
    1.5373339219851021E+00 
    2.4069272379925151E+00 
    1.2356747255237874E+00 
    2.1969593656645761E+00 
    8.1793503886329599E-01 
    2.1547622570885974E+00 
    2.0111753375475248E+00 
    1.3482922640346724E+00 
    2.0569694267834358E+00 
    1.1296248743167749E+00 
    2.4499058427973597E+00 
    1.5460574390021258E+00 
    1.5684382558111394E+00 
    2.4120265377580226E+00 
    1.0812021752021279E+00 
    9.2249780098990786E-01 
    1.3964976313197299E+00 
    1.5992403799353261E+00 
    2.0897185826958578E+00 
    1.6028573842936973E+00 
    8.6036697486028701E-01 
    2.1120197705389914E+00 
    1.3796411837199585E+00 
    2.2881295963123303E+00 
    1.5875042111341071E+00 
    5.6331248898354314E-01 
    1.3938406279490794E+00 
    7.0148511082486609E-01 
    2.0839742670954369E+00 
    1.8435834232867292E+00 
    1.3547455121262408E+00 
    1.0906760801535276E+00 
    8.7121301738470847E-01 
    1.4068846168924949E+00 
    7.8784126946968702E-01 
    2.1494275164878376E+00 
    2.0904220180407020E+00 
    1.4864408279250494E+00 
    1.8247407345186808E+00 
    1.5226916193648152E+00 
    1.8964536866842003E+00 
    1.6836924619993685E+00 
    9.8599574398334722E-01 
    1.4300529179882651E+00 
    1.7231489674304274E+00 
    1.4443897559155752E+00 
    1.5203030728413578E+00 
    2.0505668802701811E+00 
    1.6989423118786207E+00 
    7.8733863457803877E-01 
    1.4824449267216244E+00 
    2.4500552478563926E+00 
    8.1289948350366681E-01 
    1.6399851148350699E+00 
    1.5053805430514413E+00 
    1.2777287264831250E+00 
    0.0000000000000000E+00 
    1.2698887107501355E+00 
    1.6712116194494737E+00 
    1.3620173114691703E+00 
    1.7602258985056058E+00 
    2.3176392769166072E+00 
    9.6212724256352378E-01 
    1.3088458003975167E+00 
    1.8206919309215497E+00 
    1.3645971859701447E+00 
    1.1939010732525388E+00 
    7.5075505002839671E-01 
    2.1200614079728997E+00 
    2.0515080348359875E+00 
    1.0000000000000000E+00 
    2.3392614692624072E+00 
    1.3187447520934561E+00 
    7.5879354144775946E-01 
    1.7329983954758499E+00 
    2.2153797442006478E+00 
    1.6753443395525807E+00 
    1.5080306583344634E+00 
    1.5036945333737395E+00 
    7.1558626467927533E-01 
    2.2524828853637380E+00 
    1.5482290113301829E+00 
    1.5375956498837184E+00 
    1.4674567583908948E+00 
    1.4864284300250612E+00 
    9.1105924434342478E-01 
    5.5724344240665713E-01 
    1.9851501487134930E+00 
    2.0116549681155709E+00 
    1.6895420450330851E+00 
    1.7704074537446108E+00 
    9.2308274402809942E-01 
    2.2627976264981950E+00 
    1.2381986448046534E+00 
    1.3812529259581723E+00 
    1.4812798875862339E+00 
    6.2071657093607058E-01 
    7.6124746457336179E-01 
    1.0937401031312479E+00 
    1.0046776331274316E+00 
    1.4416765178944604E+00 
    1.8490961393103158E+00 
    1.1469982954454572E+00 
    1.6045260434949924E+00 
    9.7721380898310395E-01 
    9.8060862693406226E-01 
    9.5820667912770785E-01 
    1.7999572058771556E+00 
    1.4451706401787179E+00 
    1.6556947618743927E+00 
    1.3793216858768891E+00 
    1.0000000000000000E+00 
    7.7280686020474398E-01 
    2.1348786119406684E+00 
    1.2887748488374000E+00 
    8.6175985256165266E-01 
    1.7884143013885485E+00 
    8.4726895507792210E-01 
    1.4003687155204656E+00 
    1.6341289379942114E+00 
    1.9412845387702236E+00 
    1.0056034021540459E+00 
    1.0913369649568558E+00 
    2.0642597650425523E+00 
    1.8314865721117259E+00 
    1.1250948000227221E+00 
    2.3234524872450382E+00 
    9.3749016132218266E-01 
    1.1540599087103085E+00 
    3.6994852853439769E-01 
    2.6398511469881401E+00 
    3.6630670575070984E-01 
    1.2830917360439817E+00 
    8.7900137026680047E-01 
    1.7098675692102026E+00 
    2.6395852299134654E+00 
    8.5671150200584167E-01 
    1.7047324034284195E+00 
    1.2057584999393602E+00 
    2.0774768724387407E+00 
    2.3363751468027076E+00 
    1.4917491150986903E+00 
    1.7398685856949905E+00 
    2.0747217096670871E+00 
    1.4804309937659925E+00 
    2.0950481524616884E+00 
    1.1941783174608267E+00 
    1.8050956807929515E+00 
    9.4782261819791580E-01 
    9.0299981822232023E-01 
    1.7367406312879987E+00 
    1.7097560302240742E+00 
    1.2450586480179269E+00 
    2.2078536291925901E+00 
    1.4991825205414542E+00 
    6.5301594330406421E-01 
    5.9948063232417781E-01 
    2.3826108621382929E+00 
    2.3885843857552844E+00 
    1.2049592718119086E+00 
    1.2004362315543424E+00 
    1.7903230403697084E+00 
    1.7964315521176779E+00 
    1.5174768468459781E+00 
    2.0637358233265020E+00 
    1.0000000000000000E+00 
    1.2058756981596985E+00 
    2.1344229866959883E+00 
    9.1009010240483668E-01 
    2.3546295183785917E+00 
    1.7903007501574275E+00 
    2.6390671075003955E+00 
    1.7498236195202210E+00 
    1.4923940268001108E+00 
    2.3946836055433351E+00 
    1.4369748359391867E+00 
    2.3353810508519657E+00 
    1.4992359676907880E+00 
    6.0087338915365629E-01 
    3.4746208998485467E-01 
    1.1719057267981028E+00 
    6.5954171173022080E-01 
    1.2173409881551280E+00 
    1.5001095711434433E+00 
    1.2884471138735076E+00 
    2.1385679923939600E+00 
    2.0290922139295837E+00 
    2.0900496979309335E+00 
    1.8209609898427357E+00 
    2.6660484044226114E+00 
    9.0115359117852567E-01 
    1.1777741465829330E+00 
    9.0602090145853331E-01 
    1.7484651228493675E+00 
    1.8151267497677790E+00 
    1.2437743334619911E+00 
    1.9090772628313899E+00 
    1.0831839019645584E+00 
    8.8686840774854492E-01 
    2.0873255831154465E+00 
    3.0963968128853203E-01 
    1.0778903947384819E+00 
    2.7444179007488549E+00 
    1.9148344777672213E+00 
    8.5900104550137901E-01 
    2.0780404528917744E+00 
    1.0829562941028588E+00 
    1.9160927233231124E+00 
    1.3409368996037885E+00 
    1.1794662502572772E+00 
    2.0095072392731210E+00 
    9.1691918755203461E-01 
    1.1772114837390912E+00 
    2.0933540348086690E+00 
    8.8478247789568909E-01 
    1.4384123341118960E+00 
    1.5246248254617134E+00 
    1.7676621059112829E+00 
    1.4918886174173600E+00 
    1.4606175718582410E+00 
    1.7707850359099877E+00 
    2.3471456201333596E+00 
    1.2368549044609161E+00 
    3.4799006236565005E-01 
    1.7536617224460740E+00 
    2.6686220773087248E+00 
    3.2398830111725779E-01 
    1.1334140139339766E+00 
    9.4839592515899918E-01 
    1.8637790967670911E+00 
    1.8637228089963314E+00 
    9.5003981786237812E-01 
    2.7805967771438542E+00 
    1.8662851035656303E+00 
    2.0473019306909537E+00 
    1.1333306774346124E+00 
    2.0486183056591125E+00 
    1.1333058612267779E+00 
    1.4573561544302900E+00 
    9.2302479969669171E-01 
    9.0416925700371453E-01 
    1.8208318059281476E+00 
    1.1304725638297375E+00 
    2.3308201183822003E-01 
    1.1304674796323764E+00 
    2.3333112916041132E-01 
    1.8665051393604004E+00 
    2.7819340785557913E+00 
    1.8664824826955253E+00 
    2.7819207052868680E+00 
    1.6133707396822179E+00 
    7.2879112020052905E-01 
    0.0000000000000000E+00 
    9.1771092333720772E-01 
    2.0409284332923678E+00 
    1.7527584254290420E+00 
    2.6674472453247589E+00 
    6.3691542098065734E-01 
    2.2425731097676636E+00 
    1.1181491966421278E+00 
    2.0164938241782870E+00 
    1.7879230086466738E+00 
    9.7174269542085712E-01 
    1.0076869023877413E+00 
    1.8759231957026741E+00 
    1.0000000000000000E+00 
    1.2444131480252596E+00 
    2.0887259496679151E+00 
    1.3624321574606288E+00 
    2.3586518152724025E+00 
    1.5279845494473259E+00 
    1.5185509996995272E+00 
    1.1333232374767728E+00 
    2.0497899198810421E+00 
    1.8663338748227396E+00 
    9.4979503243574237E-01 
    1.4267630555635133E+00 
    7.6489118769154041E-01 
    1.0000000000000000E+00 
    2.2617617639999623E+00 
    1.6141129459073209E+00 
    1.2084330535186580E+00 
    8.7584229171740413E-01 
    1.7920239602417853E+00 
    1.3444206614899157E+00 
    7.6171260470333968E-01 
    1.6917775784647473E+00 
    1.3055391043306883E+00 